V -t * -v 1.0a5 -a 0
A -t * -n 1 -p 0 -o 0x7fffffff -c 30 -a 1
A -t * -h 1 -m 1073741823 -s 0
c -t * -i 2 -n Red
n -t * -a 0 -s 0 -S UP -v circle -c black -i black
n -t * -a 1 -s 1 -S UP -v circle -c black -i black
n -t * -a 2 -s 2 -S UP -v circle -c black -i black
l -t * -s 0 -d 1 -S UP -r 2000000 -D 0.01 -c black -o right-up
l -t * -s 1 -d 2 -S UP -r 1700000 -D 0.02 -c black -o right-down
q -t * -s 2 -d 1 -a 0.5
q -t * -s 1 -d 2 -a 0.5
+ -t 0.1 -s 0 -d 1 -p cbr -e 1000 -c 2 -i 0 -a 2 -x {0.0 2.0 0 ------- null}
- -t 0.1 -s 0 -d 1 -p cbr -e 1000 -c 2 -i 0 -a 2 -x {0.0 2.0 0 ------- null}
h -t 0.1 -s 0 -d 1 -p cbr -e 1000 -c 2 -i 0 -a 2 -x {0.0 2.0 -1 ------- null}
+ -t 0.108 -s 0 -d 1 -p cbr -e 1000 -c 2 -i 1 -a 2 -x {0.0 2.0 1 ------- null}
- -t 0.108 -s 0 -d 1 -p cbr -e 1000 -c 2 -i 1 -a 2 -x {0.0 2.0 1 ------- null}
h -t 0.108 -s 0 -d 1 -p cbr -e 1000 -c 2 -i 1 -a 2 -x {0.0 2.0 -1 ------- null}
r -t 0.114 -s 0 -d 1 -p cbr -e 1000 -c 2 -i 0 -a 2 -x {0.0 2.0 0 ------- null}
+ -t 0.114 -s 1 -d 2 -p cbr -e 1000 -c 2 -i 0 -a 2 -x {0.0 2.0 0 ------- null}
- -t 0.114 -s 1 -d 2 -p cbr -e 1000 -c 2 -i 0 -a 2 -x {0.0 2.0 0 ------- null}
h -t 0.114 -s 1 -d 2 -p cbr -e 1000 -c 2 -i 0 -a 2 -x {0.0 2.0 -1 ------- null}
+ -t 0.116 -s 0 -d 1 -p cbr -e 1000 -c 2 -i 2 -a 2 -x {0.0 2.0 2 ------- null}
- -t 0.116 -s 0 -d 1 -p cbr -e 1000 -c 2 -i 2 -a 2 -x {0.0 2.0 2 ------- null}
h -t 0.116 -s 0 -d 1 -p cbr -e 1000 -c 2 -i 2 -a 2 -x {0.0 2.0 -1 ------- null}
r -t 0.122 -s 0 -d 1 -p cbr -e 1000 -c 2 -i 1 -a 2 -x {0.0 2.0 1 ------- null}
+ -t 0.122 -s 1 -d 2 -p cbr -e 1000 -c 2 -i 1 -a 2 -x {0.0 2.0 1 ------- null}
- -t 0.122 -s 1 -d 2 -p cbr -e 1000 -c 2 -i 1 -a 2 -x {0.0 2.0 1 ------- null}
h -t 0.122 -s 1 -d 2 -p cbr -e 1000 -c 2 -i 1 -a 2 -x {0.0 2.0 -1 ------- null}
+ -t 0.124 -s 0 -d 1 -p cbr -e 1000 -c 2 -i 3 -a 2 -x {0.0 2.0 3 ------- null}
- -t 0.124 -s 0 -d 1 -p cbr -e 1000 -c 2 -i 3 -a 2 -x {0.0 2.0 3 ------- null}
h -t 0.124 -s 0 -d 1 -p cbr -e 1000 -c 2 -i 3 -a 2 -x {0.0 2.0 -1 ------- null}
r -t 0.13 -s 0 -d 1 -p cbr -e 1000 -c 2 -i 2 -a 2 -x {0.0 2.0 2 ------- null}
+ -t 0.13 -s 1 -d 2 -p cbr -e 1000 -c 2 -i 2 -a 2 -x {0.0 2.0 2 ------- null}
- -t 0.13 -s 1 -d 2 -p cbr -e 1000 -c 2 -i 2 -a 2 -x {0.0 2.0 2 ------- null}
h -t 0.13 -s 1 -d 2 -p cbr -e 1000 -c 2 -i 2 -a 2 -x {0.0 2.0 -1 ------- null}
+ -t 0.132 -s 0 -d 1 -p cbr -e 1000 -c 2 -i 4 -a 2 -x {0.0 2.0 4 ------- null}
- -t 0.132 -s 0 -d 1 -p cbr -e 1000 -c 2 -i 4 -a 2 -x {0.0 2.0 4 ------- null}
h -t 0.132 -s 0 -d 1 -p cbr -e 1000 -c 2 -i 4 -a 2 -x {0.0 2.0 -1 ------- null}
r -t 0.138 -s 0 -d 1 -p cbr -e 1000 -c 2 -i 3 -a 2 -x {0.0 2.0 3 ------- null}
+ -t 0.138 -s 1 -d 2 -p cbr -e 1000 -c 2 -i 3 -a 2 -x {0.0 2.0 3 ------- null}
- -t 0.138 -s 1 -d 2 -p cbr -e 1000 -c 2 -i 3 -a 2 -x {0.0 2.0 3 ------- null}
h -t 0.138 -s 1 -d 2 -p cbr -e 1000 -c 2 -i 3 -a 2 -x {0.0 2.0 -1 ------- null}
r -t 0.138705882352941 -s 1 -d 2 -p cbr -e 1000 -c 2 -i 0 -a 2 -x {0.0 2.0 0 ------- null}
+ -t 0.14 -s 0 -d 1 -p cbr -e 1000 -c 2 -i 5 -a 2 -x {0.0 2.0 5 ------- null}
- -t 0.14 -s 0 -d 1 -p cbr -e 1000 -c 2 -i 5 -a 2 -x {0.0 2.0 5 ------- null}
h -t 0.14 -s 0 -d 1 -p cbr -e 1000 -c 2 -i 5 -a 2 -x {0.0 2.0 -1 ------- null}
r -t 0.146 -s 0 -d 1 -p cbr -e 1000 -c 2 -i 4 -a 2 -x {0.0 2.0 4 ------- null}
+ -t 0.146 -s 1 -d 2 -p cbr -e 1000 -c 2 -i 4 -a 2 -x {0.0 2.0 4 ------- null}
- -t 0.146 -s 1 -d 2 -p cbr -e 1000 -c 2 -i 4 -a 2 -x {0.0 2.0 4 ------- null}
h -t 0.146 -s 1 -d 2 -p cbr -e 1000 -c 2 -i 4 -a 2 -x {0.0 2.0 -1 ------- null}
r -t 0.146705882352941 -s 1 -d 2 -p cbr -e 1000 -c 2 -i 1 -a 2 -x {0.0 2.0 1 ------- null}
+ -t 0.148 -s 0 -d 1 -p cbr -e 1000 -c 2 -i 6 -a 2 -x {0.0 2.0 6 ------- null}
- -t 0.148 -s 0 -d 1 -p cbr -e 1000 -c 2 -i 6 -a 2 -x {0.0 2.0 6 ------- null}
h -t 0.148 -s 0 -d 1 -p cbr -e 1000 -c 2 -i 6 -a 2 -x {0.0 2.0 -1 ------- null}
r -t 0.154 -s 0 -d 1 -p cbr -e 1000 -c 2 -i 5 -a 2 -x {0.0 2.0 5 ------- null}
+ -t 0.154 -s 1 -d 2 -p cbr -e 1000 -c 2 -i 5 -a 2 -x {0.0 2.0 5 ------- null}
- -t 0.154 -s 1 -d 2 -p cbr -e 1000 -c 2 -i 5 -a 2 -x {0.0 2.0 5 ------- null}
h -t 0.154 -s 1 -d 2 -p cbr -e 1000 -c 2 -i 5 -a 2 -x {0.0 2.0 -1 ------- null}
r -t 0.154705882352941 -s 1 -d 2 -p cbr -e 1000 -c 2 -i 2 -a 2 -x {0.0 2.0 2 ------- null}
+ -t 0.156 -s 0 -d 1 -p cbr -e 1000 -c 2 -i 7 -a 2 -x {0.0 2.0 7 ------- null}
- -t 0.156 -s 0 -d 1 -p cbr -e 1000 -c 2 -i 7 -a 2 -x {0.0 2.0 7 ------- null}
h -t 0.156 -s 0 -d 1 -p cbr -e 1000 -c 2 -i 7 -a 2 -x {0.0 2.0 -1 ------- null}
r -t 0.162 -s 0 -d 1 -p cbr -e 1000 -c 2 -i 6 -a 2 -x {0.0 2.0 6 ------- null}
+ -t 0.162 -s 1 -d 2 -p cbr -e 1000 -c 2 -i 6 -a 2 -x {0.0 2.0 6 ------- null}
- -t 0.162 -s 1 -d 2 -p cbr -e 1000 -c 2 -i 6 -a 2 -x {0.0 2.0 6 ------- null}
h -t 0.162 -s 1 -d 2 -p cbr -e 1000 -c 2 -i 6 -a 2 -x {0.0 2.0 -1 ------- null}
r -t 0.162705882352941 -s 1 -d 2 -p cbr -e 1000 -c 2 -i 3 -a 2 -x {0.0 2.0 3 ------- null}
+ -t 0.164 -s 0 -d 1 -p cbr -e 1000 -c 2 -i 8 -a 2 -x {0.0 2.0 8 ------- null}
- -t 0.164 -s 0 -d 1 -p cbr -e 1000 -c 2 -i 8 -a 2 -x {0.0 2.0 8 ------- null}
h -t 0.164 -s 0 -d 1 -p cbr -e 1000 -c 2 -i 8 -a 2 -x {0.0 2.0 -1 ------- null}
r -t 0.17 -s 0 -d 1 -p cbr -e 1000 -c 2 -i 7 -a 2 -x {0.0 2.0 7 ------- null}
+ -t 0.17 -s 1 -d 2 -p cbr -e 1000 -c 2 -i 7 -a 2 -x {0.0 2.0 7 ------- null}
- -t 0.17 -s 1 -d 2 -p cbr -e 1000 -c 2 -i 7 -a 2 -x {0.0 2.0 7 ------- null}
h -t 0.17 -s 1 -d 2 -p cbr -e 1000 -c 2 -i 7 -a 2 -x {0.0 2.0 -1 ------- null}
r -t 0.170705882352941 -s 1 -d 2 -p cbr -e 1000 -c 2 -i 4 -a 2 -x {0.0 2.0 4 ------- null}
+ -t 0.172 -s 0 -d 1 -p cbr -e 1000 -c 2 -i 9 -a 2 -x {0.0 2.0 9 ------- null}
- -t 0.172 -s 0 -d 1 -p cbr -e 1000 -c 2 -i 9 -a 2 -x {0.0 2.0 9 ------- null}
h -t 0.172 -s 0 -d 1 -p cbr -e 1000 -c 2 -i 9 -a 2 -x {0.0 2.0 -1 ------- null}
r -t 0.178 -s 0 -d 1 -p cbr -e 1000 -c 2 -i 8 -a 2 -x {0.0 2.0 8 ------- null}
+ -t 0.178 -s 1 -d 2 -p cbr -e 1000 -c 2 -i 8 -a 2 -x {0.0 2.0 8 ------- null}
- -t 0.178 -s 1 -d 2 -p cbr -e 1000 -c 2 -i 8 -a 2 -x {0.0 2.0 8 ------- null}
h -t 0.178 -s 1 -d 2 -p cbr -e 1000 -c 2 -i 8 -a 2 -x {0.0 2.0 -1 ------- null}
r -t 0.178705882352941 -s 1 -d 2 -p cbr -e 1000 -c 2 -i 5 -a 2 -x {0.0 2.0 5 ------- null}
+ -t 0.18 -s 0 -d 1 -p cbr -e 1000 -c 2 -i 10 -a 2 -x {0.0 2.0 10 ------- null}
- -t 0.18 -s 0 -d 1 -p cbr -e 1000 -c 2 -i 10 -a 2 -x {0.0 2.0 10 ------- null}
h -t 0.18 -s 0 -d 1 -p cbr -e 1000 -c 2 -i 10 -a 2 -x {0.0 2.0 -1 ------- null}
r -t 0.186 -s 0 -d 1 -p cbr -e 1000 -c 2 -i 9 -a 2 -x {0.0 2.0 9 ------- null}
+ -t 0.186 -s 1 -d 2 -p cbr -e 1000 -c 2 -i 9 -a 2 -x {0.0 2.0 9 ------- null}
- -t 0.186 -s 1 -d 2 -p cbr -e 1000 -c 2 -i 9 -a 2 -x {0.0 2.0 9 ------- null}
h -t 0.186 -s 1 -d 2 -p cbr -e 1000 -c 2 -i 9 -a 2 -x {0.0 2.0 -1 ------- null}
r -t 0.186705882352941 -s 1 -d 2 -p cbr -e 1000 -c 2 -i 6 -a 2 -x {0.0 2.0 6 ------- null}
+ -t 0.188 -s 0 -d 1 -p cbr -e 1000 -c 2 -i 11 -a 2 -x {0.0 2.0 11 ------- null}
- -t 0.188 -s 0 -d 1 -p cbr -e 1000 -c 2 -i 11 -a 2 -x {0.0 2.0 11 ------- null}
h -t 0.188 -s 0 -d 1 -p cbr -e 1000 -c 2 -i 11 -a 2 -x {0.0 2.0 -1 ------- null}
r -t 0.194 -s 0 -d 1 -p cbr -e 1000 -c 2 -i 10 -a 2 -x {0.0 2.0 10 ------- null}
+ -t 0.194 -s 1 -d 2 -p cbr -e 1000 -c 2 -i 10 -a 2 -x {0.0 2.0 10 ------- null}
- -t 0.194 -s 1 -d 2 -p cbr -e 1000 -c 2 -i 10 -a 2 -x {0.0 2.0 10 ------- null}
h -t 0.194 -s 1 -d 2 -p cbr -e 1000 -c 2 -i 10 -a 2 -x {0.0 2.0 -1 ------- null}
r -t 0.194705882352941 -s 1 -d 2 -p cbr -e 1000 -c 2 -i 7 -a 2 -x {0.0 2.0 7 ------- null}
+ -t 0.196 -s 0 -d 1 -p cbr -e 1000 -c 2 -i 12 -a 2 -x {0.0 2.0 12 ------- null}
- -t 0.196 -s 0 -d 1 -p cbr -e 1000 -c 2 -i 12 -a 2 -x {0.0 2.0 12 ------- null}
h -t 0.196 -s 0 -d 1 -p cbr -e 1000 -c 2 -i 12 -a 2 -x {0.0 2.0 -1 ------- null}
r -t 0.202 -s 0 -d 1 -p cbr -e 1000 -c 2 -i 11 -a 2 -x {0.0 2.0 11 ------- null}
+ -t 0.202 -s 1 -d 2 -p cbr -e 1000 -c 2 -i 11 -a 2 -x {0.0 2.0 11 ------- null}
- -t 0.202 -s 1 -d 2 -p cbr -e 1000 -c 2 -i 11 -a 2 -x {0.0 2.0 11 ------- null}
h -t 0.202 -s 1 -d 2 -p cbr -e 1000 -c 2 -i 11 -a 2 -x {0.0 2.0 -1 ------- null}
r -t 0.202705882352941 -s 1 -d 2 -p cbr -e 1000 -c 2 -i 8 -a 2 -x {0.0 2.0 8 ------- null}
+ -t 0.204 -s 0 -d 1 -p cbr -e 1000 -c 2 -i 13 -a 2 -x {0.0 2.0 13 ------- null}
- -t 0.204 -s 0 -d 1 -p cbr -e 1000 -c 2 -i 13 -a 2 -x {0.0 2.0 13 ------- null}
h -t 0.204 -s 0 -d 1 -p cbr -e 1000 -c 2 -i 13 -a 2 -x {0.0 2.0 -1 ------- null}
r -t 0.21 -s 0 -d 1 -p cbr -e 1000 -c 2 -i 12 -a 2 -x {0.0 2.0 12 ------- null}
+ -t 0.21 -s 1 -d 2 -p cbr -e 1000 -c 2 -i 12 -a 2 -x {0.0 2.0 12 ------- null}
- -t 0.21 -s 1 -d 2 -p cbr -e 1000 -c 2 -i 12 -a 2 -x {0.0 2.0 12 ------- null}
h -t 0.21 -s 1 -d 2 -p cbr -e 1000 -c 2 -i 12 -a 2 -x {0.0 2.0 -1 ------- null}
r -t 0.210705882352941 -s 1 -d 2 -p cbr -e 1000 -c 2 -i 9 -a 2 -x {0.0 2.0 9 ------- null}
+ -t 0.212 -s 0 -d 1 -p cbr -e 1000 -c 2 -i 14 -a 2 -x {0.0 2.0 14 ------- null}
- -t 0.212 -s 0 -d 1 -p cbr -e 1000 -c 2 -i 14 -a 2 -x {0.0 2.0 14 ------- null}
h -t 0.212 -s 0 -d 1 -p cbr -e 1000 -c 2 -i 14 -a 2 -x {0.0 2.0 -1 ------- null}
r -t 0.218 -s 0 -d 1 -p cbr -e 1000 -c 2 -i 13 -a 2 -x {0.0 2.0 13 ------- null}
+ -t 0.218 -s 1 -d 2 -p cbr -e 1000 -c 2 -i 13 -a 2 -x {0.0 2.0 13 ------- null}
- -t 0.218 -s 1 -d 2 -p cbr -e 1000 -c 2 -i 13 -a 2 -x {0.0 2.0 13 ------- null}
h -t 0.218 -s 1 -d 2 -p cbr -e 1000 -c 2 -i 13 -a 2 -x {0.0 2.0 -1 ------- null}
r -t 0.218705882352941 -s 1 -d 2 -p cbr -e 1000 -c 2 -i 10 -a 2 -x {0.0 2.0 10 ------- null}
+ -t 0.22 -s 0 -d 1 -p cbr -e 1000 -c 2 -i 15 -a 2 -x {0.0 2.0 15 ------- null}
- -t 0.22 -s 0 -d 1 -p cbr -e 1000 -c 2 -i 15 -a 2 -x {0.0 2.0 15 ------- null}
h -t 0.22 -s 0 -d 1 -p cbr -e 1000 -c 2 -i 15 -a 2 -x {0.0 2.0 -1 ------- null}
r -t 0.226 -s 0 -d 1 -p cbr -e 1000 -c 2 -i 14 -a 2 -x {0.0 2.0 14 ------- null}
+ -t 0.226 -s 1 -d 2 -p cbr -e 1000 -c 2 -i 14 -a 2 -x {0.0 2.0 14 ------- null}
- -t 0.226 -s 1 -d 2 -p cbr -e 1000 -c 2 -i 14 -a 2 -x {0.0 2.0 14 ------- null}
h -t 0.226 -s 1 -d 2 -p cbr -e 1000 -c 2 -i 14 -a 2 -x {0.0 2.0 -1 ------- null}
r -t 0.226705882352941 -s 1 -d 2 -p cbr -e 1000 -c 2 -i 11 -a 2 -x {0.0 2.0 11 ------- null}
+ -t 0.228 -s 0 -d 1 -p cbr -e 1000 -c 2 -i 16 -a 2 -x {0.0 2.0 16 ------- null}
- -t 0.228 -s 0 -d 1 -p cbr -e 1000 -c 2 -i 16 -a 2 -x {0.0 2.0 16 ------- null}
h -t 0.228 -s 0 -d 1 -p cbr -e 1000 -c 2 -i 16 -a 2 -x {0.0 2.0 -1 ------- null}
r -t 0.234 -s 0 -d 1 -p cbr -e 1000 -c 2 -i 15 -a 2 -x {0.0 2.0 15 ------- null}
+ -t 0.234 -s 1 -d 2 -p cbr -e 1000 -c 2 -i 15 -a 2 -x {0.0 2.0 15 ------- null}
- -t 0.234 -s 1 -d 2 -p cbr -e 1000 -c 2 -i 15 -a 2 -x {0.0 2.0 15 ------- null}
h -t 0.234 -s 1 -d 2 -p cbr -e 1000 -c 2 -i 15 -a 2 -x {0.0 2.0 -1 ------- null}
r -t 0.234705882352941 -s 1 -d 2 -p cbr -e 1000 -c 2 -i 12 -a 2 -x {0.0 2.0 12 ------- null}
+ -t 0.236 -s 0 -d 1 -p cbr -e 1000 -c 2 -i 17 -a 2 -x {0.0 2.0 17 ------- null}
- -t 0.236 -s 0 -d 1 -p cbr -e 1000 -c 2 -i 17 -a 2 -x {0.0 2.0 17 ------- null}
h -t 0.236 -s 0 -d 1 -p cbr -e 1000 -c 2 -i 17 -a 2 -x {0.0 2.0 -1 ------- null}
r -t 0.242 -s 0 -d 1 -p cbr -e 1000 -c 2 -i 16 -a 2 -x {0.0 2.0 16 ------- null}
+ -t 0.242 -s 1 -d 2 -p cbr -e 1000 -c 2 -i 16 -a 2 -x {0.0 2.0 16 ------- null}
- -t 0.242 -s 1 -d 2 -p cbr -e 1000 -c 2 -i 16 -a 2 -x {0.0 2.0 16 ------- null}
h -t 0.242 -s 1 -d 2 -p cbr -e 1000 -c 2 -i 16 -a 2 -x {0.0 2.0 -1 ------- null}
r -t 0.242705882352941 -s 1 -d 2 -p cbr -e 1000 -c 2 -i 13 -a 2 -x {0.0 2.0 13 ------- null}
+ -t 0.244 -s 0 -d 1 -p cbr -e 1000 -c 2 -i 18 -a 2 -x {0.0 2.0 18 ------- null}
- -t 0.244 -s 0 -d 1 -p cbr -e 1000 -c 2 -i 18 -a 2 -x {0.0 2.0 18 ------- null}
h -t 0.244 -s 0 -d 1 -p cbr -e 1000 -c 2 -i 18 -a 2 -x {0.0 2.0 -1 ------- null}
r -t 0.25 -s 0 -d 1 -p cbr -e 1000 -c 2 -i 17 -a 2 -x {0.0 2.0 17 ------- null}
+ -t 0.25 -s 1 -d 2 -p cbr -e 1000 -c 2 -i 17 -a 2 -x {0.0 2.0 17 ------- null}
- -t 0.25 -s 1 -d 2 -p cbr -e 1000 -c 2 -i 17 -a 2 -x {0.0 2.0 17 ------- null}
h -t 0.25 -s 1 -d 2 -p cbr -e 1000 -c 2 -i 17 -a 2 -x {0.0 2.0 -1 ------- null}
r -t 0.250705882352941 -s 1 -d 2 -p cbr -e 1000 -c 2 -i 14 -a 2 -x {0.0 2.0 14 ------- null}
+ -t 0.252 -s 0 -d 1 -p cbr -e 1000 -c 2 -i 19 -a 2 -x {0.0 2.0 19 ------- null}
- -t 0.252 -s 0 -d 1 -p cbr -e 1000 -c 2 -i 19 -a 2 -x {0.0 2.0 19 ------- null}
h -t 0.252 -s 0 -d 1 -p cbr -e 1000 -c 2 -i 19 -a 2 -x {0.0 2.0 -1 ------- null}
r -t 0.258 -s 0 -d 1 -p cbr -e 1000 -c 2 -i 18 -a 2 -x {0.0 2.0 18 ------- null}
+ -t 0.258 -s 1 -d 2 -p cbr -e 1000 -c 2 -i 18 -a 2 -x {0.0 2.0 18 ------- null}
- -t 0.258 -s 1 -d 2 -p cbr -e 1000 -c 2 -i 18 -a 2 -x {0.0 2.0 18 ------- null}
h -t 0.258 -s 1 -d 2 -p cbr -e 1000 -c 2 -i 18 -a 2 -x {0.0 2.0 -1 ------- null}
r -t 0.258705882352941 -s 1 -d 2 -p cbr -e 1000 -c 2 -i 15 -a 2 -x {0.0 2.0 15 ------- null}
+ -t 0.26 -s 0 -d 1 -p cbr -e 1000 -c 2 -i 20 -a 2 -x {0.0 2.0 20 ------- null}
- -t 0.26 -s 0 -d 1 -p cbr -e 1000 -c 2 -i 20 -a 2 -x {0.0 2.0 20 ------- null}
h -t 0.26 -s 0 -d 1 -p cbr -e 1000 -c 2 -i 20 -a 2 -x {0.0 2.0 -1 ------- null}
r -t 0.266 -s 0 -d 1 -p cbr -e 1000 -c 2 -i 19 -a 2 -x {0.0 2.0 19 ------- null}
+ -t 0.266 -s 1 -d 2 -p cbr -e 1000 -c 2 -i 19 -a 2 -x {0.0 2.0 19 ------- null}
- -t 0.266 -s 1 -d 2 -p cbr -e 1000 -c 2 -i 19 -a 2 -x {0.0 2.0 19 ------- null}
h -t 0.266 -s 1 -d 2 -p cbr -e 1000 -c 2 -i 19 -a 2 -x {0.0 2.0 -1 ------- null}
r -t 0.266705882352941 -s 1 -d 2 -p cbr -e 1000 -c 2 -i 16 -a 2 -x {0.0 2.0 16 ------- null}
+ -t 0.268 -s 0 -d 1 -p cbr -e 1000 -c 2 -i 21 -a 2 -x {0.0 2.0 21 ------- null}
- -t 0.268 -s 0 -d 1 -p cbr -e 1000 -c 2 -i 21 -a 2 -x {0.0 2.0 21 ------- null}
h -t 0.268 -s 0 -d 1 -p cbr -e 1000 -c 2 -i 21 -a 2 -x {0.0 2.0 -1 ------- null}
r -t 0.274 -s 0 -d 1 -p cbr -e 1000 -c 2 -i 20 -a 2 -x {0.0 2.0 20 ------- null}
+ -t 0.274 -s 1 -d 2 -p cbr -e 1000 -c 2 -i 20 -a 2 -x {0.0 2.0 20 ------- null}
- -t 0.274 -s 1 -d 2 -p cbr -e 1000 -c 2 -i 20 -a 2 -x {0.0 2.0 20 ------- null}
h -t 0.274 -s 1 -d 2 -p cbr -e 1000 -c 2 -i 20 -a 2 -x {0.0 2.0 -1 ------- null}
r -t 0.274705882352941 -s 1 -d 2 -p cbr -e 1000 -c 2 -i 17 -a 2 -x {0.0 2.0 17 ------- null}
+ -t 0.276 -s 0 -d 1 -p cbr -e 1000 -c 2 -i 22 -a 2 -x {0.0 2.0 22 ------- null}
- -t 0.276 -s 0 -d 1 -p cbr -e 1000 -c 2 -i 22 -a 2 -x {0.0 2.0 22 ------- null}
h -t 0.276 -s 0 -d 1 -p cbr -e 1000 -c 2 -i 22 -a 2 -x {0.0 2.0 -1 ------- null}
r -t 0.282 -s 0 -d 1 -p cbr -e 1000 -c 2 -i 21 -a 2 -x {0.0 2.0 21 ------- null}
+ -t 0.282 -s 1 -d 2 -p cbr -e 1000 -c 2 -i 21 -a 2 -x {0.0 2.0 21 ------- null}
- -t 0.282 -s 1 -d 2 -p cbr -e 1000 -c 2 -i 21 -a 2 -x {0.0 2.0 21 ------- null}
h -t 0.282 -s 1 -d 2 -p cbr -e 1000 -c 2 -i 21 -a 2 -x {0.0 2.0 -1 ------- null}
r -t 0.282705882352941 -s 1 -d 2 -p cbr -e 1000 -c 2 -i 18 -a 2 -x {0.0 2.0 18 ------- null}
+ -t 0.284 -s 0 -d 1 -p cbr -e 1000 -c 2 -i 23 -a 2 -x {0.0 2.0 23 ------- null}
- -t 0.284 -s 0 -d 1 -p cbr -e 1000 -c 2 -i 23 -a 2 -x {0.0 2.0 23 ------- null}
h -t 0.284 -s 0 -d 1 -p cbr -e 1000 -c 2 -i 23 -a 2 -x {0.0 2.0 -1 ------- null}
r -t 0.29 -s 0 -d 1 -p cbr -e 1000 -c 2 -i 22 -a 2 -x {0.0 2.0 22 ------- null}
+ -t 0.29 -s 1 -d 2 -p cbr -e 1000 -c 2 -i 22 -a 2 -x {0.0 2.0 22 ------- null}
- -t 0.29 -s 1 -d 2 -p cbr -e 1000 -c 2 -i 22 -a 2 -x {0.0 2.0 22 ------- null}
h -t 0.29 -s 1 -d 2 -p cbr -e 1000 -c 2 -i 22 -a 2 -x {0.0 2.0 -1 ------- null}
r -t 0.290705882352941 -s 1 -d 2 -p cbr -e 1000 -c 2 -i 19 -a 2 -x {0.0 2.0 19 ------- null}
+ -t 0.292 -s 0 -d 1 -p cbr -e 1000 -c 2 -i 24 -a 2 -x {0.0 2.0 24 ------- null}
- -t 0.292 -s 0 -d 1 -p cbr -e 1000 -c 2 -i 24 -a 2 -x {0.0 2.0 24 ------- null}
h -t 0.292 -s 0 -d 1 -p cbr -e 1000 -c 2 -i 24 -a 2 -x {0.0 2.0 -1 ------- null}
r -t 0.298 -s 0 -d 1 -p cbr -e 1000 -c 2 -i 23 -a 2 -x {0.0 2.0 23 ------- null}
+ -t 0.298 -s 1 -d 2 -p cbr -e 1000 -c 2 -i 23 -a 2 -x {0.0 2.0 23 ------- null}
- -t 0.298 -s 1 -d 2 -p cbr -e 1000 -c 2 -i 23 -a 2 -x {0.0 2.0 23 ------- null}
h -t 0.298 -s 1 -d 2 -p cbr -e 1000 -c 2 -i 23 -a 2 -x {0.0 2.0 -1 ------- null}
r -t 0.298705882352941 -s 1 -d 2 -p cbr -e 1000 -c 2 -i 20 -a 2 -x {0.0 2.0 20 ------- null}
+ -t 0.3 -s 0 -d 1 -p cbr -e 1000 -c 2 -i 25 -a 2 -x {0.0 2.0 25 ------- null}
- -t 0.3 -s 0 -d 1 -p cbr -e 1000 -c 2 -i 25 -a 2 -x {0.0 2.0 25 ------- null}
h -t 0.3 -s 0 -d 1 -p cbr -e 1000 -c 2 -i 25 -a 2 -x {0.0 2.0 -1 ------- null}
r -t 0.306 -s 0 -d 1 -p cbr -e 1000 -c 2 -i 24 -a 2 -x {0.0 2.0 24 ------- null}
+ -t 0.306 -s 1 -d 2 -p cbr -e 1000 -c 2 -i 24 -a 2 -x {0.0 2.0 24 ------- null}
- -t 0.306 -s 1 -d 2 -p cbr -e 1000 -c 2 -i 24 -a 2 -x {0.0 2.0 24 ------- null}
h -t 0.306 -s 1 -d 2 -p cbr -e 1000 -c 2 -i 24 -a 2 -x {0.0 2.0 -1 ------- null}
r -t 0.306705882352941 -s 1 -d 2 -p cbr -e 1000 -c 2 -i 21 -a 2 -x {0.0 2.0 21 ------- null}
+ -t 0.308 -s 0 -d 1 -p cbr -e 1000 -c 2 -i 26 -a 2 -x {0.0 2.0 26 ------- null}
- -t 0.308 -s 0 -d 1 -p cbr -e 1000 -c 2 -i 26 -a 2 -x {0.0 2.0 26 ------- null}
h -t 0.308 -s 0 -d 1 -p cbr -e 1000 -c 2 -i 26 -a 2 -x {0.0 2.0 -1 ------- null}
r -t 0.314 -s 0 -d 1 -p cbr -e 1000 -c 2 -i 25 -a 2 -x {0.0 2.0 25 ------- null}
+ -t 0.314 -s 1 -d 2 -p cbr -e 1000 -c 2 -i 25 -a 2 -x {0.0 2.0 25 ------- null}
- -t 0.314 -s 1 -d 2 -p cbr -e 1000 -c 2 -i 25 -a 2 -x {0.0 2.0 25 ------- null}
h -t 0.314 -s 1 -d 2 -p cbr -e 1000 -c 2 -i 25 -a 2 -x {0.0 2.0 -1 ------- null}
r -t 0.314705882352941 -s 1 -d 2 -p cbr -e 1000 -c 2 -i 22 -a 2 -x {0.0 2.0 22 ------- null}
+ -t 0.316 -s 0 -d 1 -p cbr -e 1000 -c 2 -i 27 -a 2 -x {0.0 2.0 27 ------- null}
- -t 0.316 -s 0 -d 1 -p cbr -e 1000 -c 2 -i 27 -a 2 -x {0.0 2.0 27 ------- null}
h -t 0.316 -s 0 -d 1 -p cbr -e 1000 -c 2 -i 27 -a 2 -x {0.0 2.0 -1 ------- null}
r -t 0.322 -s 0 -d 1 -p cbr -e 1000 -c 2 -i 26 -a 2 -x {0.0 2.0 26 ------- null}
+ -t 0.322 -s 1 -d 2 -p cbr -e 1000 -c 2 -i 26 -a 2 -x {0.0 2.0 26 ------- null}
- -t 0.322 -s 1 -d 2 -p cbr -e 1000 -c 2 -i 26 -a 2 -x {0.0 2.0 26 ------- null}
h -t 0.322 -s 1 -d 2 -p cbr -e 1000 -c 2 -i 26 -a 2 -x {0.0 2.0 -1 ------- null}
r -t 0.322705882352941 -s 1 -d 2 -p cbr -e 1000 -c 2 -i 23 -a 2 -x {0.0 2.0 23 ------- null}
+ -t 0.324 -s 0 -d 1 -p cbr -e 1000 -c 2 -i 28 -a 2 -x {0.0 2.0 28 ------- null}
- -t 0.324 -s 0 -d 1 -p cbr -e 1000 -c 2 -i 28 -a 2 -x {0.0 2.0 28 ------- null}
h -t 0.324 -s 0 -d 1 -p cbr -e 1000 -c 2 -i 28 -a 2 -x {0.0 2.0 -1 ------- null}
r -t 0.33 -s 0 -d 1 -p cbr -e 1000 -c 2 -i 27 -a 2 -x {0.0 2.0 27 ------- null}
+ -t 0.33 -s 1 -d 2 -p cbr -e 1000 -c 2 -i 27 -a 2 -x {0.0 2.0 27 ------- null}
- -t 0.33 -s 1 -d 2 -p cbr -e 1000 -c 2 -i 27 -a 2 -x {0.0 2.0 27 ------- null}
h -t 0.33 -s 1 -d 2 -p cbr -e 1000 -c 2 -i 27 -a 2 -x {0.0 2.0 -1 ------- null}
r -t 0.330705882352941 -s 1 -d 2 -p cbr -e 1000 -c 2 -i 24 -a 2 -x {0.0 2.0 24 ------- null}
+ -t 0.332 -s 0 -d 1 -p cbr -e 1000 -c 2 -i 29 -a 2 -x {0.0 2.0 29 ------- null}
- -t 0.332 -s 0 -d 1 -p cbr -e 1000 -c 2 -i 29 -a 2 -x {0.0 2.0 29 ------- null}
h -t 0.332 -s 0 -d 1 -p cbr -e 1000 -c 2 -i 29 -a 2 -x {0.0 2.0 -1 ------- null}
r -t 0.338 -s 0 -d 1 -p cbr -e 1000 -c 2 -i 28 -a 2 -x {0.0 2.0 28 ------- null}
+ -t 0.338 -s 1 -d 2 -p cbr -e 1000 -c 2 -i 28 -a 2 -x {0.0 2.0 28 ------- null}
- -t 0.338 -s 1 -d 2 -p cbr -e 1000 -c 2 -i 28 -a 2 -x {0.0 2.0 28 ------- null}
h -t 0.338 -s 1 -d 2 -p cbr -e 1000 -c 2 -i 28 -a 2 -x {0.0 2.0 -1 ------- null}
r -t 0.338705882352941 -s 1 -d 2 -p cbr -e 1000 -c 2 -i 25 -a 2 -x {0.0 2.0 25 ------- null}
+ -t 0.34 -s 0 -d 1 -p cbr -e 1000 -c 2 -i 30 -a 2 -x {0.0 2.0 30 ------- null}
- -t 0.34 -s 0 -d 1 -p cbr -e 1000 -c 2 -i 30 -a 2 -x {0.0 2.0 30 ------- null}
h -t 0.34 -s 0 -d 1 -p cbr -e 1000 -c 2 -i 30 -a 2 -x {0.0 2.0 -1 ------- null}
r -t 0.346 -s 0 -d 1 -p cbr -e 1000 -c 2 -i 29 -a 2 -x {0.0 2.0 29 ------- null}
+ -t 0.346 -s 1 -d 2 -p cbr -e 1000 -c 2 -i 29 -a 2 -x {0.0 2.0 29 ------- null}
- -t 0.346 -s 1 -d 2 -p cbr -e 1000 -c 2 -i 29 -a 2 -x {0.0 2.0 29 ------- null}
h -t 0.346 -s 1 -d 2 -p cbr -e 1000 -c 2 -i 29 -a 2 -x {0.0 2.0 -1 ------- null}
r -t 0.346705882352941 -s 1 -d 2 -p cbr -e 1000 -c 2 -i 26 -a 2 -x {0.0 2.0 26 ------- null}
+ -t 0.348 -s 0 -d 1 -p cbr -e 1000 -c 2 -i 31 -a 2 -x {0.0 2.0 31 ------- null}
- -t 0.348 -s 0 -d 1 -p cbr -e 1000 -c 2 -i 31 -a 2 -x {0.0 2.0 31 ------- null}
h -t 0.348 -s 0 -d 1 -p cbr -e 1000 -c 2 -i 31 -a 2 -x {0.0 2.0 -1 ------- null}
r -t 0.354 -s 0 -d 1 -p cbr -e 1000 -c 2 -i 30 -a 2 -x {0.0 2.0 30 ------- null}
+ -t 0.354 -s 1 -d 2 -p cbr -e 1000 -c 2 -i 30 -a 2 -x {0.0 2.0 30 ------- null}
- -t 0.354 -s 1 -d 2 -p cbr -e 1000 -c 2 -i 30 -a 2 -x {0.0 2.0 30 ------- null}
h -t 0.354 -s 1 -d 2 -p cbr -e 1000 -c 2 -i 30 -a 2 -x {0.0 2.0 -1 ------- null}
r -t 0.354705882352941 -s 1 -d 2 -p cbr -e 1000 -c 2 -i 27 -a 2 -x {0.0 2.0 27 ------- null}
+ -t 0.356 -s 0 -d 1 -p cbr -e 1000 -c 2 -i 32 -a 2 -x {0.0 2.0 32 ------- null}
- -t 0.356 -s 0 -d 1 -p cbr -e 1000 -c 2 -i 32 -a 2 -x {0.0 2.0 32 ------- null}
h -t 0.356 -s 0 -d 1 -p cbr -e 1000 -c 2 -i 32 -a 2 -x {0.0 2.0 -1 ------- null}
r -t 0.362 -s 0 -d 1 -p cbr -e 1000 -c 2 -i 31 -a 2 -x {0.0 2.0 31 ------- null}
+ -t 0.362 -s 1 -d 2 -p cbr -e 1000 -c 2 -i 31 -a 2 -x {0.0 2.0 31 ------- null}
- -t 0.362 -s 1 -d 2 -p cbr -e 1000 -c 2 -i 31 -a 2 -x {0.0 2.0 31 ------- null}
h -t 0.362 -s 1 -d 2 -p cbr -e 1000 -c 2 -i 31 -a 2 -x {0.0 2.0 -1 ------- null}
r -t 0.362705882352941 -s 1 -d 2 -p cbr -e 1000 -c 2 -i 28 -a 2 -x {0.0 2.0 28 ------- null}
+ -t 0.364 -s 0 -d 1 -p cbr -e 1000 -c 2 -i 33 -a 2 -x {0.0 2.0 33 ------- null}
- -t 0.364 -s 0 -d 1 -p cbr -e 1000 -c 2 -i 33 -a 2 -x {0.0 2.0 33 ------- null}
h -t 0.364 -s 0 -d 1 -p cbr -e 1000 -c 2 -i 33 -a 2 -x {0.0 2.0 -1 ------- null}
r -t 0.37 -s 0 -d 1 -p cbr -e 1000 -c 2 -i 32 -a 2 -x {0.0 2.0 32 ------- null}
+ -t 0.37 -s 1 -d 2 -p cbr -e 1000 -c 2 -i 32 -a 2 -x {0.0 2.0 32 ------- null}
- -t 0.37 -s 1 -d 2 -p cbr -e 1000 -c 2 -i 32 -a 2 -x {0.0 2.0 32 ------- null}
h -t 0.37 -s 1 -d 2 -p cbr -e 1000 -c 2 -i 32 -a 2 -x {0.0 2.0 -1 ------- null}
r -t 0.370705882352941 -s 1 -d 2 -p cbr -e 1000 -c 2 -i 29 -a 2 -x {0.0 2.0 29 ------- null}
+ -t 0.372 -s 0 -d 1 -p cbr -e 1000 -c 2 -i 34 -a 2 -x {0.0 2.0 34 ------- null}
- -t 0.372 -s 0 -d 1 -p cbr -e 1000 -c 2 -i 34 -a 2 -x {0.0 2.0 34 ------- null}
h -t 0.372 -s 0 -d 1 -p cbr -e 1000 -c 2 -i 34 -a 2 -x {0.0 2.0 -1 ------- null}
r -t 0.378 -s 0 -d 1 -p cbr -e 1000 -c 2 -i 33 -a 2 -x {0.0 2.0 33 ------- null}
+ -t 0.378 -s 1 -d 2 -p cbr -e 1000 -c 2 -i 33 -a 2 -x {0.0 2.0 33 ------- null}
- -t 0.378 -s 1 -d 2 -p cbr -e 1000 -c 2 -i 33 -a 2 -x {0.0 2.0 33 ------- null}
h -t 0.378 -s 1 -d 2 -p cbr -e 1000 -c 2 -i 33 -a 2 -x {0.0 2.0 -1 ------- null}
r -t 0.378705882352941 -s 1 -d 2 -p cbr -e 1000 -c 2 -i 30 -a 2 -x {0.0 2.0 30 ------- null}
+ -t 0.38 -s 0 -d 1 -p cbr -e 1000 -c 2 -i 35 -a 2 -x {0.0 2.0 35 ------- null}
- -t 0.38 -s 0 -d 1 -p cbr -e 1000 -c 2 -i 35 -a 2 -x {0.0 2.0 35 ------- null}
h -t 0.38 -s 0 -d 1 -p cbr -e 1000 -c 2 -i 35 -a 2 -x {0.0 2.0 -1 ------- null}
r -t 0.386 -s 0 -d 1 -p cbr -e 1000 -c 2 -i 34 -a 2 -x {0.0 2.0 34 ------- null}
+ -t 0.386 -s 1 -d 2 -p cbr -e 1000 -c 2 -i 34 -a 2 -x {0.0 2.0 34 ------- null}
- -t 0.386 -s 1 -d 2 -p cbr -e 1000 -c 2 -i 34 -a 2 -x {0.0 2.0 34 ------- null}
h -t 0.386 -s 1 -d 2 -p cbr -e 1000 -c 2 -i 34 -a 2 -x {0.0 2.0 -1 ------- null}
r -t 0.386705882352941 -s 1 -d 2 -p cbr -e 1000 -c 2 -i 31 -a 2 -x {0.0 2.0 31 ------- null}
+ -t 0.388 -s 0 -d 1 -p cbr -e 1000 -c 2 -i 36 -a 2 -x {0.0 2.0 36 ------- null}
- -t 0.388 -s 0 -d 1 -p cbr -e 1000 -c 2 -i 36 -a 2 -x {0.0 2.0 36 ------- null}
h -t 0.388 -s 0 -d 1 -p cbr -e 1000 -c 2 -i 36 -a 2 -x {0.0 2.0 -1 ------- null}
r -t 0.394 -s 0 -d 1 -p cbr -e 1000 -c 2 -i 35 -a 2 -x {0.0 2.0 35 ------- null}
+ -t 0.394 -s 1 -d 2 -p cbr -e 1000 -c 2 -i 35 -a 2 -x {0.0 2.0 35 ------- null}
- -t 0.394 -s 1 -d 2 -p cbr -e 1000 -c 2 -i 35 -a 2 -x {0.0 2.0 35 ------- null}
h -t 0.394 -s 1 -d 2 -p cbr -e 1000 -c 2 -i 35 -a 2 -x {0.0 2.0 -1 ------- null}
r -t 0.394705882352941 -s 1 -d 2 -p cbr -e 1000 -c 2 -i 32 -a 2 -x {0.0 2.0 32 ------- null}
+ -t 0.396 -s 0 -d 1 -p cbr -e 1000 -c 2 -i 37 -a 2 -x {0.0 2.0 37 ------- null}
- -t 0.396 -s 0 -d 1 -p cbr -e 1000 -c 2 -i 37 -a 2 -x {0.0 2.0 37 ------- null}
h -t 0.396 -s 0 -d 1 -p cbr -e 1000 -c 2 -i 37 -a 2 -x {0.0 2.0 -1 ------- null}
r -t 0.402 -s 0 -d 1 -p cbr -e 1000 -c 2 -i 36 -a 2 -x {0.0 2.0 36 ------- null}
+ -t 0.402 -s 1 -d 2 -p cbr -e 1000 -c 2 -i 36 -a 2 -x {0.0 2.0 36 ------- null}
- -t 0.402 -s 1 -d 2 -p cbr -e 1000 -c 2 -i 36 -a 2 -x {0.0 2.0 36 ------- null}
h -t 0.402 -s 1 -d 2 -p cbr -e 1000 -c 2 -i 36 -a 2 -x {0.0 2.0 -1 ------- null}
r -t 0.402705882352941 -s 1 -d 2 -p cbr -e 1000 -c 2 -i 33 -a 2 -x {0.0 2.0 33 ------- null}
+ -t 0.404 -s 0 -d 1 -p cbr -e 1000 -c 2 -i 38 -a 2 -x {0.0 2.0 38 ------- null}
- -t 0.404 -s 0 -d 1 -p cbr -e 1000 -c 2 -i 38 -a 2 -x {0.0 2.0 38 ------- null}
h -t 0.404 -s 0 -d 1 -p cbr -e 1000 -c 2 -i 38 -a 2 -x {0.0 2.0 -1 ------- null}
r -t 0.41 -s 0 -d 1 -p cbr -e 1000 -c 2 -i 37 -a 2 -x {0.0 2.0 37 ------- null}
+ -t 0.41 -s 1 -d 2 -p cbr -e 1000 -c 2 -i 37 -a 2 -x {0.0 2.0 37 ------- null}
- -t 0.41 -s 1 -d 2 -p cbr -e 1000 -c 2 -i 37 -a 2 -x {0.0 2.0 37 ------- null}
h -t 0.41 -s 1 -d 2 -p cbr -e 1000 -c 2 -i 37 -a 2 -x {0.0 2.0 -1 ------- null}
r -t 0.410705882352941 -s 1 -d 2 -p cbr -e 1000 -c 2 -i 34 -a 2 -x {0.0 2.0 34 ------- null}
+ -t 0.412 -s 0 -d 1 -p cbr -e 1000 -c 2 -i 39 -a 2 -x {0.0 2.0 39 ------- null}
- -t 0.412 -s 0 -d 1 -p cbr -e 1000 -c 2 -i 39 -a 2 -x {0.0 2.0 39 ------- null}
h -t 0.412 -s 0 -d 1 -p cbr -e 1000 -c 2 -i 39 -a 2 -x {0.0 2.0 -1 ------- null}
r -t 0.418 -s 0 -d 1 -p cbr -e 1000 -c 2 -i 38 -a 2 -x {0.0 2.0 38 ------- null}
+ -t 0.418 -s 1 -d 2 -p cbr -e 1000 -c 2 -i 38 -a 2 -x {0.0 2.0 38 ------- null}
- -t 0.418 -s 1 -d 2 -p cbr -e 1000 -c 2 -i 38 -a 2 -x {0.0 2.0 38 ------- null}
h -t 0.418 -s 1 -d 2 -p cbr -e 1000 -c 2 -i 38 -a 2 -x {0.0 2.0 -1 ------- null}
r -t 0.418705882352941 -s 1 -d 2 -p cbr -e 1000 -c 2 -i 35 -a 2 -x {0.0 2.0 35 ------- null}
+ -t 0.42 -s 0 -d 1 -p cbr -e 1000 -c 2 -i 40 -a 2 -x {0.0 2.0 40 ------- null}
- -t 0.42 -s 0 -d 1 -p cbr -e 1000 -c 2 -i 40 -a 2 -x {0.0 2.0 40 ------- null}
h -t 0.42 -s 0 -d 1 -p cbr -e 1000 -c 2 -i 40 -a 2 -x {0.0 2.0 -1 ------- null}
r -t 0.426 -s 0 -d 1 -p cbr -e 1000 -c 2 -i 39 -a 2 -x {0.0 2.0 39 ------- null}
+ -t 0.426 -s 1 -d 2 -p cbr -e 1000 -c 2 -i 39 -a 2 -x {0.0 2.0 39 ------- null}
- -t 0.426 -s 1 -d 2 -p cbr -e 1000 -c 2 -i 39 -a 2 -x {0.0 2.0 39 ------- null}
h -t 0.426 -s 1 -d 2 -p cbr -e 1000 -c 2 -i 39 -a 2 -x {0.0 2.0 -1 ------- null}
r -t 0.426705882352941 -s 1 -d 2 -p cbr -e 1000 -c 2 -i 36 -a 2 -x {0.0 2.0 36 ------- null}
+ -t 0.428 -s 0 -d 1 -p cbr -e 1000 -c 2 -i 41 -a 2 -x {0.0 2.0 41 ------- null}
- -t 0.428 -s 0 -d 1 -p cbr -e 1000 -c 2 -i 41 -a 2 -x {0.0 2.0 41 ------- null}
h -t 0.428 -s 0 -d 1 -p cbr -e 1000 -c 2 -i 41 -a 2 -x {0.0 2.0 -1 ------- null}
r -t 0.434 -s 0 -d 1 -p cbr -e 1000 -c 2 -i 40 -a 2 -x {0.0 2.0 40 ------- null}
+ -t 0.434 -s 1 -d 2 -p cbr -e 1000 -c 2 -i 40 -a 2 -x {0.0 2.0 40 ------- null}
- -t 0.434 -s 1 -d 2 -p cbr -e 1000 -c 2 -i 40 -a 2 -x {0.0 2.0 40 ------- null}
h -t 0.434 -s 1 -d 2 -p cbr -e 1000 -c 2 -i 40 -a 2 -x {0.0 2.0 -1 ------- null}
r -t 0.434705882352941 -s 1 -d 2 -p cbr -e 1000 -c 2 -i 37 -a 2 -x {0.0 2.0 37 ------- null}
+ -t 0.436 -s 0 -d 1 -p cbr -e 1000 -c 2 -i 42 -a 2 -x {0.0 2.0 42 ------- null}
- -t 0.436 -s 0 -d 1 -p cbr -e 1000 -c 2 -i 42 -a 2 -x {0.0 2.0 42 ------- null}
h -t 0.436 -s 0 -d 1 -p cbr -e 1000 -c 2 -i 42 -a 2 -x {0.0 2.0 -1 ------- null}
r -t 0.442 -s 0 -d 1 -p cbr -e 1000 -c 2 -i 41 -a 2 -x {0.0 2.0 41 ------- null}
+ -t 0.442 -s 1 -d 2 -p cbr -e 1000 -c 2 -i 41 -a 2 -x {0.0 2.0 41 ------- null}
- -t 0.442 -s 1 -d 2 -p cbr -e 1000 -c 2 -i 41 -a 2 -x {0.0 2.0 41 ------- null}
h -t 0.442 -s 1 -d 2 -p cbr -e 1000 -c 2 -i 41 -a 2 -x {0.0 2.0 -1 ------- null}
r -t 0.442705882352941 -s 1 -d 2 -p cbr -e 1000 -c 2 -i 38 -a 2 -x {0.0 2.0 38 ------- null}
+ -t 0.444 -s 0 -d 1 -p cbr -e 1000 -c 2 -i 43 -a 2 -x {0.0 2.0 43 ------- null}
- -t 0.444 -s 0 -d 1 -p cbr -e 1000 -c 2 -i 43 -a 2 -x {0.0 2.0 43 ------- null}
h -t 0.444 -s 0 -d 1 -p cbr -e 1000 -c 2 -i 43 -a 2 -x {0.0 2.0 -1 ------- null}
r -t 0.45 -s 0 -d 1 -p cbr -e 1000 -c 2 -i 42 -a 2 -x {0.0 2.0 42 ------- null}
+ -t 0.45 -s 1 -d 2 -p cbr -e 1000 -c 2 -i 42 -a 2 -x {0.0 2.0 42 ------- null}
- -t 0.45 -s 1 -d 2 -p cbr -e 1000 -c 2 -i 42 -a 2 -x {0.0 2.0 42 ------- null}
h -t 0.45 -s 1 -d 2 -p cbr -e 1000 -c 2 -i 42 -a 2 -x {0.0 2.0 -1 ------- null}
r -t 0.450705882352941 -s 1 -d 2 -p cbr -e 1000 -c 2 -i 39 -a 2 -x {0.0 2.0 39 ------- null}
+ -t 0.452 -s 0 -d 1 -p cbr -e 1000 -c 2 -i 44 -a 2 -x {0.0 2.0 44 ------- null}
- -t 0.452 -s 0 -d 1 -p cbr -e 1000 -c 2 -i 44 -a 2 -x {0.0 2.0 44 ------- null}
h -t 0.452 -s 0 -d 1 -p cbr -e 1000 -c 2 -i 44 -a 2 -x {0.0 2.0 -1 ------- null}
r -t 0.458 -s 0 -d 1 -p cbr -e 1000 -c 2 -i 43 -a 2 -x {0.0 2.0 43 ------- null}
+ -t 0.458 -s 1 -d 2 -p cbr -e 1000 -c 2 -i 43 -a 2 -x {0.0 2.0 43 ------- null}
- -t 0.458 -s 1 -d 2 -p cbr -e 1000 -c 2 -i 43 -a 2 -x {0.0 2.0 43 ------- null}
h -t 0.458 -s 1 -d 2 -p cbr -e 1000 -c 2 -i 43 -a 2 -x {0.0 2.0 -1 ------- null}
r -t 0.458705882352941 -s 1 -d 2 -p cbr -e 1000 -c 2 -i 40 -a 2 -x {0.0 2.0 40 ------- null}
+ -t 0.46 -s 0 -d 1 -p cbr -e 1000 -c 2 -i 45 -a 2 -x {0.0 2.0 45 ------- null}
- -t 0.46 -s 0 -d 1 -p cbr -e 1000 -c 2 -i 45 -a 2 -x {0.0 2.0 45 ------- null}
h -t 0.46 -s 0 -d 1 -p cbr -e 1000 -c 2 -i 45 -a 2 -x {0.0 2.0 -1 ------- null}
r -t 0.466 -s 0 -d 1 -p cbr -e 1000 -c 2 -i 44 -a 2 -x {0.0 2.0 44 ------- null}
+ -t 0.466 -s 1 -d 2 -p cbr -e 1000 -c 2 -i 44 -a 2 -x {0.0 2.0 44 ------- null}
- -t 0.466 -s 1 -d 2 -p cbr -e 1000 -c 2 -i 44 -a 2 -x {0.0 2.0 44 ------- null}
h -t 0.466 -s 1 -d 2 -p cbr -e 1000 -c 2 -i 44 -a 2 -x {0.0 2.0 -1 ------- null}
r -t 0.466705882352941 -s 1 -d 2 -p cbr -e 1000 -c 2 -i 41 -a 2 -x {0.0 2.0 41 ------- null}
+ -t 0.468 -s 0 -d 1 -p cbr -e 1000 -c 2 -i 46 -a 2 -x {0.0 2.0 46 ------- null}